================================================================================
| EXCITING CARBON started                                                      =
| version hash id: 73900701ef032aa97aeb07ce43a791d723614420                    =
| MPI version using     16 processor(s)                                        =
|                                                                              =
| Date (DD-MM-YYYY) : 20-12-2017                                               =
| Time (hh:mm:ss)   : 16:44:34                                                 =
|                                                                              =
| All units are atomic (Hartree, Bohr, etc.)                                   =
================================================================================
 
********************************************************************************
| Ground-state run starting from atomic densities                              *
********************************************************************************
 
++++++++++++++++++++++++++++++++++++++++++++++++++++++++++++++++++++++++++++++++
| Starting initialization                                                      +
++++++++++++++++++++++++++++++++++++++++++++++++++++++++++++++++++++++++++++++++
 
 Lattice vectors (cartesian) :
      6.3218750451      0.0000000000      3.6499359800
      2.1072917060      5.9603208548      3.6499359800
      0.0000000000      0.0000000000      7.2998719600
 
 Reciprocal lattice vectors (cartesian) :
      0.9938800217     -0.3513896613      0.0000000000
      0.0000000000      1.0541689718      0.0000000000
     -0.4969400109     -0.3513896552      0.8607254129
 
 Unit cell volume                           :     275.0621222108
 Brillouin zone volume                      :       0.9017970611
 
 Species :    1 (Al)
     parameters loaded from                 :    Al.xml
     name                                   :    aluminium
     nuclear charge                         :     -13.00000000
     electronic charge                      :      13.00000000
     atomic mass                            :   49184.33493000
     muffin-tin radius                      :       2.20000000
     # of radial points in muffin-tin       :     250
 
     atomic positions (lattice) :
       1 :   0.00000000  0.00000000  0.00000000
 
 Species :    2 (P)
     parameters loaded from                 :    P.xml
     name                                   :    phosphorus
     nuclear charge                         :     -15.00000000
     electronic charge                      :      15.00000000
     atomic mass                            :   56461.71408000
     muffin-tin radius                      :       2.20000000
     # of radial points in muffin-tin       :     300
 
     atomic positions (lattice) :
       1 :   0.25000000  0.25000000  0.25000000
 
 Total number of atoms per unit cell        :       2
 
 Spin treatment                             :    spin-unpolarised
 
 Number of Bravais lattice symmetries       :       4
 Number of crystal symmetries               :       2
 
 k-point grid                               :       8    8    8
 Total number of k-points                   :     288
 k-point set is reduced with crystal symmetries
 
 R^MT_min * |G+k|_max (rgkmax)              :       8.00000000
 Species with R^MT_min                      :       1 (Al)
 Maximum |G+k| for APW functions            :       3.63636364
 Maximum |G| for potential and density      :      16.00000000
 
 G-vector grid sizes                        :      40    40    40
 Total number of G-vectors                  :   19027
 
 Maximum angular momentum used for
     APW functions                          :       8
     computing H and O matrix elements      :       8
     potential and density                  :       8
     inner part of muffin-tin               :       2
 
 Total nuclear charge                       :     -28.00000000
 Total electronic charge                    :      28.00000000
 Total core charge                          :      14.00000000
 Total valence charge                       :      14.00000000
 
 Number of empty states                     :       5
 Total number of valence states             :      13
 
 Maximum Hamiltonian size                   :     243
 Maximum number of plane-waves              :     229
 Total number of local-orbitals             :      14
 
 Exchange-correlation type                  :       3
     Perdew-Wang, Phys. Rev. B 45, 13244 (1992)
 
 Smearing scheme                            :    Gaussian
 Smearing width                             :       0.00100000
 
 Using multisecant Broyden potential mixing
 
++++++++++++++++++++++++++++++++++++++++++++++++++++++++++++++++++++++++++++++++
| Ending initialization                                                        +
++++++++++++++++++++++++++++++++++++++++++++++++++++++++++++++++++++++++++++++++
 
********************************************************************************
| Groundstate module started                                                   *
********************************************************************************
 Output level for this task is set to normal
 
++++++++++++++++++++++++++++++++++++++++++++++++++++++++++++++++++++++++++++++++
| Self-consistent loop started                                                 +
++++++++++++++++++++++++++++++++++++++++++++++++++++++++++++++++++++++++++++++++
 Density and potential initialised from atomic data
 
 
++++++++++++++++++++++++++++++++++++++++++++++++++++++++++++++++++++++++++++++++
| SCF iteration number :    1                                                  +
++++++++++++++++++++++++++++++++++++++++++++++++++++++++++++++++++++++++++++++++
 Total energy                               :      -584.42123070
 _______________________________________________________________
 Fermi energy                               :         0.15076093
 Kinetic energy                             :       583.05178265
 Coulomb energy                             :     -1127.61821862
 Exchange energy                            :       -37.70353060
 Correlation energy                         :        -2.15126412
 
 DOS at Fermi energy (states/Ha/cell)       :         0.00000000
 
 Electron charges :
     core                                   :        14.00000000
     core leakage                           :         0.00083706
     valence                                :        14.00000000
     interstitial                           :         3.06739763
     charge in muffin-tin spheres :
                  atom     1    Al          :        11.20697782
                  atom     2     P          :        13.72562455
     total charge in muffin-tins            :        24.93260237
     total charge                           :        28.00000000
 
 Estimated fundamental gap                  :         0.08398462
        valence-band maximum at    1      0.0000  0.0000  0.0000
     conduction-band minimum at  261      0.5000  0.0000  0.5000
 
 Wall time (seconds)                        :         3.70
 
++++++++++++++++++++++++++++++++++++++++++++++++++++++++++++++++++++++++++++++++
| SCF iteration number :    2                                                  +
++++++++++++++++++++++++++++++++++++++++++++++++++++++++++++++++++++++++++++++++
 Total energy                               :      -583.63703762
 _______________________________________________________________
 Fermi energy                               :         0.15842047
 Kinetic energy                             :       583.53393570
 Coulomb energy                             :     -1127.35252203
 Exchange energy                            :       -37.66892031
 Correlation energy                         :        -2.14953099
 
 DOS at Fermi energy (states/Ha/cell)       :         0.00000000
 
 Electron charges :
     core                                   :        14.00000000
     core leakage                           :         0.00083640
     valence                                :        14.00000000
     interstitial                           :         3.14049981
     charge in muffin-tin spheres :
                  atom     1    Al          :        11.25868325
                  atom     2     P          :        13.60081694
     total charge in muffin-tins            :        24.85950019
     total charge                           :        28.00000000
 
 Estimated fundamental gap                  :         0.06989623
        valence-band maximum at    1      0.0000  0.0000  0.0000
     conduction-band minimum at  261      0.5000  0.0000  0.5000
 
 Wall time (seconds)                        :         4.91
 
 RMS change in effective potential (target) :  0.226968E-01  ( 0.100000E-05)
 Absolute change in total energy   (target) :  0.784193      ( 0.100000E-05)
 Charge distance                   (target) :  0.932393E-02  ( 0.100000E-04)
 
++++++++++++++++++++++++++++++++++++++++++++++++++++++++++++++++++++++++++++++++
| SCF iteration number :    3                                                  +
++++++++++++++++++++++++++++++++++++++++++++++++++++++++++++++++++++++++++++++++
 Total energy                               :      -583.23180399
 _______________________________________________________________
 Fermi energy                               :         0.16282277
 Kinetic energy                             :       583.79372761
 Coulomb energy                             :     -1127.22578895
 Exchange energy                            :       -37.65114146
 Correlation energy                         :        -2.14860119
 
 DOS at Fermi energy (states/Ha/cell)       :         0.00000000
 
 Electron charges :
     core                                   :        14.00000000
     core leakage                           :         0.00083497
     valence                                :        14.00000000
     interstitial                           :         3.18211801
     charge in muffin-tin spheres :
                  atom     1    Al          :        11.28352510
                  atom     2     P          :        13.53435689
     total charge in muffin-tins            :        24.81788199
     total charge                           :        28.00000000
 
 Estimated fundamental gap                  :         0.06197648
        valence-band maximum at    1      0.0000  0.0000  0.0000
     conduction-band minimum at  261      0.5000  0.0000  0.5000
 
 Wall time (seconds)                        :         6.21
 
 RMS change in effective potential (target) :  0.117591E-01  ( 0.100000E-05)
 Absolute change in total energy   (target) :  0.405234      ( 0.100000E-05)
 Charge distance                   (target) :  0.497964E-02  ( 0.100000E-04)
 
++++++++++++++++++++++++++++++++++++++++++++++++++++++++++++++++++++++++++++++++
| SCF iteration number :    4                                                  +
++++++++++++++++++++++++++++++++++++++++++++++++++++++++++++++++++++++++++++++++
 Total energy                               :      -583.00928145
 _______________________________________________________________
 Fermi energy                               :         0.16799384
 Kinetic energy                             :       583.97871623
 Coulomb energy                             :     -1127.20017053
 Exchange energy                            :       -37.64000443
 Correlation energy                         :        -2.14782272
 
 DOS at Fermi energy (states/Ha/cell)       :         0.00000000
 
 Electron charges :
     core                                   :        14.00000000
     core leakage                           :         0.00082586
     valence                                :        14.00000000
     interstitial                           :         3.22588549
     charge in muffin-tin spheres :
                  atom     1    Al          :        11.28955276
                  atom     2     P          :        13.48456176
     total charge in muffin-tins            :        24.77411451
     total charge                           :        28.00000000
 
 Estimated fundamental gap                  :         0.05376195
        valence-band maximum at    1      0.0000  0.0000  0.0000
     conduction-band minimum at  261      0.5000  0.0000  0.5000
 
 Wall time (seconds)                        :         7.43
 
 RMS change in effective potential (target) :  0.867919E-03  ( 0.100000E-05)
 Absolute change in total energy   (target) :  0.222523      ( 0.100000E-05)
 Charge distance                   (target) :  0.411682E-02  ( 0.100000E-04)
 
++++++++++++++++++++++++++++++++++++++++++++++++++++++++++++++++++++++++++++++++
| SCF iteration number :    5                                                  +
++++++++++++++++++++++++++++++++++++++++++++++++++++++++++++++++++++++++++++++++
 Total energy                               :      -582.95952819
 _______________________________________________________________
 Fermi energy                               :         0.16805926
 Kinetic energy                             :       583.99788427
 Coulomb energy                             :     -1127.17229654
 Exchange energy                            :       -37.63738842
 Correlation energy                         :        -2.14772751
 
 DOS at Fermi energy (states/Ha/cell)       :         0.00000000
 
 Electron charges :
     core                                   :        14.00000000
     core leakage                           :         0.00082684
     valence                                :        14.00000000
     interstitial                           :         3.22835274
     charge in muffin-tin spheres :
                  atom     1    Al          :        11.29344504
                  atom     2     P          :        13.47820222
     total charge in muffin-tins            :        24.77164726
     total charge                           :        28.00000000
 
 Estimated fundamental gap                  :         0.05316775
        valence-band maximum at    1      0.0000  0.0000  0.0000
     conduction-band minimum at  261      0.5000  0.0000  0.5000
 
 Wall time (seconds)                        :         8.67
 
 RMS change in effective potential (target) :  0.369301E-03  ( 0.100000E-05)
 Absolute change in total energy   (target) :  0.497533E-01  ( 0.100000E-05)
 Charge distance                   (target) :  0.548805E-03  ( 0.100000E-04)
 
++++++++++++++++++++++++++++++++++++++++++++++++++++++++++++++++++++++++++++++++
| SCF iteration number :    6                                                  +
++++++++++++++++++++++++++++++++++++++++++++++++++++++++++++++++++++++++++++++++
 Total energy                               :      -582.97762424
 _______________________________________________________________
 Fermi energy                               :         0.16799779
 Kinetic energy                             :       583.99191853
 Coulomb energy                             :     -1127.18344562
 Exchange energy                            :       -37.63833806
 Correlation energy                         :        -2.14775909
 
 DOS at Fermi energy (states/Ha/cell)       :         0.00000000
 
 Electron charges :
     core                                   :        14.00000000
     core leakage                           :         0.00082653
     valence                                :        14.00000000
     interstitial                           :         3.22757464
     charge in muffin-tin spheres :
                  atom     1    Al          :        11.29251205
                  atom     2     P          :        13.47991331
     total charge in muffin-tins            :        24.77242536
     total charge                           :        28.00000000
 
 Estimated fundamental gap                  :         0.05333045
        valence-band maximum at    1      0.0000  0.0000  0.0000
     conduction-band minimum at  261      0.5000  0.0000  0.5000
 
 Wall time (seconds)                        :         9.92
 
 RMS change in effective potential (target) :  0.440771E-04  ( 0.100000E-05)
 Absolute change in total energy   (target) :  0.180960E-01  ( 0.100000E-05)
 Charge distance                   (target) :  0.155083E-03  ( 0.100000E-04)
 
++++++++++++++++++++++++++++++++++++++++++++++++++++++++++++++++++++++++++++++++
| SCF iteration number :    7                                                  +
++++++++++++++++++++++++++++++++++++++++++++++++++++++++++++++++++++++++++++++++
 Total energy                               :      -582.97696604
 _______________________________________________________________
 Fermi energy                               :         0.16799440
 Kinetic energy                             :       583.99176961
 Coulomb energy                             :     -1127.18265937
 Exchange energy                            :       -37.63831627
 Correlation energy                         :        -2.14776001
 
 DOS at Fermi energy (states/Ha/cell)       :         0.00000000
 
 Electron charges :
     core                                   :        14.00000000
     core leakage                           :         0.00082657
     valence                                :        14.00000000
     interstitial                           :         3.22749725
     charge in muffin-tin spheres :
                  atom     1    Al          :        11.29236547
                  atom     2     P          :        13.48013728
     total charge in muffin-tins            :        24.77250275
     total charge                           :        28.00000000
 
 Estimated fundamental gap                  :         0.05335203
        valence-band maximum at    1      0.0000  0.0000  0.0000
     conduction-band minimum at  261      0.5000  0.0000  0.5000
 
 Wall time (seconds)                        :        11.15
 
 RMS change in effective potential (target) :  0.456155E-05  ( 0.100000E-05)
 Absolute change in total energy   (target) :  0.658199E-03  ( 0.100000E-05)
 Charge distance                   (target) :  0.189613E-04  ( 0.100000E-04)
 
++++++++++++++++++++++++++++++++++++++++++++++++++++++++++++++++++++++++++++++++
| SCF iteration number :    8                                                  +
++++++++++++++++++++++++++++++++++++++++++++++++++++++++++++++++++++++++++++++++
 Total energy                               :      -582.97710275
 _______________________________________________________________
 Fermi energy                               :         0.16799527
 Kinetic energy                             :       583.99171674
 Coulomb energy                             :     -1127.18273907
 Exchange energy                            :       -37.63832037
 Correlation energy                         :        -2.14776005
 
 DOS at Fermi energy (states/Ha/cell)       :         0.00000000
 
 Electron charges :
     core                                   :        14.00000000
     core leakage                           :         0.00082656
     valence                                :        14.00000000
     interstitial                           :         3.22749765
     charge in muffin-tin spheres :
                  atom     1    Al          :        11.29238412
                  atom     2     P          :        13.48011823
     total charge in muffin-tins            :        24.77250235
     total charge                           :        28.00000000
 
 Estimated fundamental gap                  :         0.05335160
        valence-band maximum at    1      0.0000  0.0000  0.0000
     conduction-band minimum at  261      0.5000  0.0000  0.5000
 
 Wall time (seconds)                        :        12.39
 
 RMS change in effective potential (target) :  0.293011E-05  ( 0.100000E-05)
 Absolute change in total energy   (target) :  0.136709E-03  ( 0.100000E-05)
 Charge distance                   (target) :  0.195701E-05  ( 0.100000E-04)
 
++++++++++++++++++++++++++++++++++++++++++++++++++++++++++++++++++++++++++++++++
| SCF iteration number :    9                                                  +
++++++++++++++++++++++++++++++++++++++++++++++++++++++++++++++++++++++++++++++++
 Total energy                               :      -582.97710025
 _______________________________________________________________
 Fermi energy                               :         0.16799527
 Kinetic energy                             :       583.99171890
 Coulomb energy                             :     -1127.18273874
 Exchange energy                            :       -37.63832036
 Correlation energy                         :        -2.14776005
 
 DOS at Fermi energy (states/Ha/cell)       :         0.00000000
 
 Electron charges :
     core                                   :        14.00000000
     core leakage                           :         0.00082656
     valence                                :        14.00000000
     interstitial                           :         3.22749751
     charge in muffin-tin spheres :
                  atom     1    Al          :        11.29238376
                  atom     2     P          :        13.48011873
     total charge in muffin-tins            :        24.77250249
     total charge                           :        28.00000000
 
 Estimated fundamental gap                  :         0.05335163
        valence-band maximum at    1      0.0000  0.0000  0.0000
     conduction-band minimum at  261      0.5000  0.0000  0.5000
 
 Wall time (seconds)                        :        13.65
 
 RMS change in effective potential (target) :  0.221624E-05  ( 0.100000E-05)
 Absolute change in total energy   (target) :  0.250232E-05  ( 0.100000E-05)
 Charge distance                   (target) :  0.709478E-07  ( 0.100000E-04)
 
++++++++++++++++++++++++++++++++++++++++++++++++++++++++++++++++++++++++++++++++
| SCF iteration number :   10                                                  +
++++++++++++++++++++++++++++++++++++++++++++++++++++++++++++++++++++++++++++++++
 Total energy                               :      -582.97709910
 _______________________________________________________________
 Fermi energy                               :         0.16799521
 Kinetic energy                             :       583.99171811
 Coulomb energy                             :     -1127.18273690
 Exchange energy                            :       -37.63832025
 Correlation energy                         :        -2.14776005
 
 DOS at Fermi energy (states/Ha/cell)       :         0.00000000
 
 Electron charges :
     core                                   :        14.00000000
     core leakage                           :         0.00082656
     valence                                :        14.00000000
     interstitial                           :         3.22749723
     charge in muffin-tin spheres :
                  atom     1    Al          :        11.29238431
                  atom     2     P          :        13.48011846
     total charge in muffin-tins            :        24.77250277
     total charge                           :        28.00000000
 
 Estimated fundamental gap                  :         0.05335165
        valence-band maximum at    1      0.0000  0.0000  0.0000
     conduction-band minimum at  261      0.5000  0.0000  0.5000
 
 Wall time (seconds)                        :        14.91
 
 RMS change in effective potential (target) :  0.189069E-05  ( 0.100000E-05)
 Absolute change in total energy   (target) :  0.114497E-05  ( 0.100000E-05)
 Charge distance                   (target) :  0.996627E-07  ( 0.100000E-04)
 
++++++++++++++++++++++++++++++++++++++++++++++++++++++++++++++++++++++++++++++++
| SCF iteration number :   11                                                  +
++++++++++++++++++++++++++++++++++++++++++++++++++++++++++++++++++++++++++++++++
 Total energy                               :      -582.97709569
 _______________________________________________________________
 Fermi energy                               :         0.16799524
 Kinetic energy                             :       583.99172270
 Coulomb energy                             :     -1127.18273804
 Exchange energy                            :       -37.63832030
 Correlation energy                         :        -2.14776005
 
 DOS at Fermi energy (states/Ha/cell)       :         0.00000000
 
 Electron charges :
     core                                   :        14.00000000
     core leakage                           :         0.00082656
     valence                                :        14.00000000
     interstitial                           :         3.22749745
     charge in muffin-tin spheres :
                  atom     1    Al          :        11.29238297
                  atom     2     P          :        13.48011958
     total charge in muffin-tins            :        24.77250255
     total charge                           :        28.00000000
 
 Estimated fundamental gap                  :         0.05335166
        valence-band maximum at    1      0.0000  0.0000  0.0000
     conduction-band minimum at  261      0.5000  0.0000  0.5000
 
 Wall time (seconds)                        :        16.16
 
 RMS change in effective potential (target) :  0.120027E-05  ( 0.100000E-05)
 Absolute change in total energy   (target) :  0.340735E-05  ( 0.100000E-05)
 Charge distance                   (target) :  0.137886E-06  ( 0.100000E-04)
 
++++++++++++++++++++++++++++++++++++++++++++++++++++++++++++++++++++++++++++++++
| SCF iteration number :   12                                                  +
++++++++++++++++++++++++++++++++++++++++++++++++++++++++++++++++++++++++++++++++
 Total energy                               :      -582.97709659
 _______________________________________________________________
 Fermi energy                               :         0.16799524
 Kinetic energy                             :       583.99172155
 Coulomb energy                             :     -1127.18273779
 Exchange energy                            :       -37.63832030
 Correlation energy                         :        -2.14776005
 
 DOS at Fermi energy (states/Ha/cell)       :         0.00000000
 
 Electron charges :
     core                                   :        14.00000000
     core leakage                           :         0.00082656
     valence                                :        14.00000000
     interstitial                           :         3.22749741
     charge in muffin-tin spheres :
                  atom     1    Al          :        11.29238295
                  atom     2     P          :        13.48011964
     total charge in muffin-tins            :        24.77250259
     total charge                           :        28.00000000
 
 Estimated fundamental gap                  :         0.05335166
        valence-band maximum at    1      0.0000  0.0000  0.0000
     conduction-band minimum at  261      0.5000  0.0000  0.5000
 
 Wall time (seconds)                        :        17.41
 
 RMS change in effective potential (target) :  0.206168E-05  ( 0.100000E-05)
 Absolute change in total energy   (target) :  0.896320E-06  ( 0.100000E-05)
 Charge distance                   (target) :  0.266648E-07  ( 0.100000E-04)
 
++++++++++++++++++++++++++++++++++++++++++++++++++++++++++++++++++++++++++++++++
| SCF iteration number :   13                                                  +
++++++++++++++++++++++++++++++++++++++++++++++++++++++++++++++++++++++++++++++++
 Total energy                               :      -582.97709654
 _______________________________________________________________
 Fermi energy                               :         0.16799523
 Kinetic energy                             :       583.99172176
 Coulomb energy                             :     -1127.18273793
 Exchange energy                            :       -37.63832031
 Correlation energy                         :        -2.14776005
 
 DOS at Fermi energy (states/Ha/cell)       :         0.00000000
 
 Electron charges :
     core                                   :        14.00000000
     core leakage                           :         0.00082656
     valence                                :        14.00000000
     interstitial                           :         3.22749738
     charge in muffin-tin spheres :
                  atom     1    Al          :        11.29238305
                  atom     2     P          :        13.48011957
     total charge in muffin-tins            :        24.77250262
     total charge                           :        28.00000000
 
 Estimated fundamental gap                  :         0.05335166
        valence-band maximum at    1      0.0000  0.0000  0.0000
     conduction-band minimum at  261      0.5000  0.0000  0.5000
 
 Wall time (seconds)                        :        18.70
 
 RMS change in effective potential (target) :  0.130246E-05  ( 0.100000E-05)
 Absolute change in total energy   (target) :  0.543600E-07  ( 0.100000E-05)
 Charge distance                   (target) :  0.326292E-07  ( 0.100000E-04)
 
++++++++++++++++++++++++++++++++++++++++++++++++++++++++++++++++++++++++++++++++
| SCF iteration number :   14                                                  +
++++++++++++++++++++++++++++++++++++++++++++++++++++++++++++++++++++++++++++++++
 Total energy                               :      -582.97709674
 _______________________________________________________________
 Fermi energy                               :         0.16799523
 Kinetic energy                             :       583.99172147
 Coulomb energy                             :     -1127.18273785
 Exchange energy                            :       -37.63832031
 Correlation energy                         :        -2.14776005
 
 DOS at Fermi energy (states/Ha/cell)       :         0.00000000
 
 Electron charges :
     core                                   :        14.00000000
     core leakage                           :         0.00082656
     valence                                :        14.00000000
     interstitial                           :         3.22749738
     charge in muffin-tin spheres :
                  atom     1    Al          :        11.29238297
                  atom     2     P          :        13.48011965
     total charge in muffin-tins            :        24.77250262
     total charge                           :        28.00000000
 
 Estimated fundamental gap                  :         0.05335167
        valence-band maximum at    1      0.0000  0.0000  0.0000
     conduction-band minimum at  261      0.5000  0.0000  0.5000
 
 Wall time (seconds)                        :        19.97
 
 RMS change in effective potential (target) :  0.195917E-05  ( 0.100000E-05)
 Absolute change in total energy   (target) :  0.207089E-06  ( 0.100000E-05)
 Charge distance                   (target) :  0.261222E-07  ( 0.100000E-04)
 
++++++++++++++++++++++++++++++++++++++++++++++++++++++++++++++++++++++++++++++++
| SCF iteration number :   15                                                  +
++++++++++++++++++++++++++++++++++++++++++++++++++++++++++++++++++++++++++++++++
 Total energy                               :      -582.97709689
 _______________________________________________________________
 Fermi energy                               :         0.16799523
 Kinetic energy                             :       583.99172163
 Coulomb energy                             :     -1127.18273814
 Exchange energy                            :       -37.63832033
 Correlation energy                         :        -2.14776005
 
 DOS at Fermi energy (states/Ha/cell)       :         0.00000000
 
 Electron charges :
     core                                   :        14.00000000
     core leakage                           :         0.00082656
     valence                                :        14.00000000
     interstitial                           :         3.22749736
     charge in muffin-tin spheres :
                  atom     1    Al          :        11.29238302
                  atom     2     P          :        13.48011962
     total charge in muffin-tins            :        24.77250264
     total charge                           :        28.00000000
 
 Estimated fundamental gap                  :         0.05335167
        valence-band maximum at    1      0.0000  0.0000  0.0000
     conduction-band minimum at  261      0.5000  0.0000  0.5000
 
 Wall time (seconds)                        :        21.23
 
 RMS change in effective potential (target) :  0.131842E-05  ( 0.100000E-05)
 Absolute change in total energy   (target) :  0.143763E-06  ( 0.100000E-05)
 Charge distance                   (target) :  0.260718E-07  ( 0.100000E-04)
 
++++++++++++++++++++++++++++++++++++++++++++++++++++++++++++++++++++++++++++++++
| SCF iteration number :   16                                                  +
++++++++++++++++++++++++++++++++++++++++++++++++++++++++++++++++++++++++++++++++
 Total energy                               :      -582.97709660
 _______________________________________________________________
 Fermi energy                               :         0.16799523
 Kinetic energy                             :       583.99172149
 Coulomb energy                             :     -1127.18273774
 Exchange energy                            :       -37.63832030
 Correlation energy                         :        -2.14776005
 
 DOS at Fermi energy (states/Ha/cell)       :         0.00000000
 
 Electron charges :
     core                                   :        14.00000000
     core leakage                           :         0.00082656
     valence                                :        14.00000000
     interstitial                           :         3.22749738
     charge in muffin-tin spheres :
                  atom     1    Al          :        11.29238299
                  atom     2     P          :        13.48011962
     total charge in muffin-tins            :        24.77250262
     total charge                           :        28.00000000
 
 Estimated fundamental gap                  :         0.05335167
        valence-band maximum at    1      0.0000  0.0000  0.0000
     conduction-band minimum at  261      0.5000  0.0000  0.5000
 
 Wall time (seconds)                        :        22.50
 
 RMS change in effective potential (target) :  0.102655E-05  ( 0.100000E-05)
 Absolute change in total energy   (target) :  0.287318E-06  ( 0.100000E-05)
 Charge distance                   (target) :  0.208314E-07  ( 0.100000E-04)
 
++++++++++++++++++++++++++++++++++++++++++++++++++++++++++++++++++++++++++++++++
| SCF iteration number :   17                                                  +
++++++++++++++++++++++++++++++++++++++++++++++++++++++++++++++++++++++++++++++++
 Total energy                               :      -582.97709662
 _______________________________________________________________
 Fermi energy                               :         0.16799524
 Kinetic energy                             :       583.99172159
 Coulomb energy                             :     -1127.18273786
 Exchange energy                            :       -37.63832030
 Correlation energy                         :        -2.14776005
 
 DOS at Fermi energy (states/Ha/cell)       :         0.00000000
 
 Electron charges :
     core                                   :        14.00000000
     core leakage                           :         0.00082656
     valence                                :        14.00000000
     interstitial                           :         3.22749743
     charge in muffin-tin spheres :
                  atom     1    Al          :        11.29238295
                  atom     2     P          :        13.48011962
     total charge in muffin-tins            :        24.77250257
     total charge                           :        28.00000000
 
 Estimated fundamental gap                  :         0.05335166
        valence-band maximum at    1      0.0000  0.0000  0.0000
     conduction-band minimum at  261      0.5000  0.0000  0.5000
 
 Wall time (seconds)                        :        23.80
 
 RMS change in effective potential (target) :  0.780463E-06  ( 0.100000E-05)
 Absolute change in total energy   (target) :  0.256366E-07  ( 0.100000E-05)
 Charge distance                   (target) :  0.170881E-07  ( 0.100000E-04)
 
++++++++++++++++++++++++++++++++++++++++++++++++++++++++++++++++++++++++++++++++
| SCF iteration number :   18                                                  +
++++++++++++++++++++++++++++++++++++++++++++++++++++++++++++++++++++++++++++++++
 Total energy                               :      -582.97709624
 _______________________________________________________________
 Fermi energy                               :         0.16799525
 Kinetic energy                             :       583.99172187
 Coulomb energy                             :     -1127.18273778
 Exchange energy                            :       -37.63832028
 Correlation energy                         :        -2.14776005
 
 DOS at Fermi energy (states/Ha/cell)       :         0.00000000
 
 Electron charges :
     core                                   :        14.00000000
     core leakage                           :         0.00082656
     valence                                :        14.00000000
     interstitial                           :         3.22749751
     charge in muffin-tin spheres :
                  atom     1    Al          :        11.29238292
                  atom     2     P          :        13.48011957
     total charge in muffin-tins            :        24.77250249
     total charge                           :        28.00000000
 
 Estimated fundamental gap                  :         0.05335165
        valence-band maximum at    1      0.0000  0.0000  0.0000
     conduction-band minimum at  261      0.5000  0.0000  0.5000
 
 Wall time (seconds)                        :        25.08
 
 RMS change in effective potential (target) :  0.247382E-05  ( 0.100000E-05)
 Absolute change in total energy   (target) :  0.384358E-06  ( 0.100000E-05)
 Charge distance                   (target) :  0.244704E-07  ( 0.100000E-04)
 
++++++++++++++++++++++++++++++++++++++++++++++++++++++++++++++++++++++++++++++++
| SCF iteration number :   19                                                  +
++++++++++++++++++++++++++++++++++++++++++++++++++++++++++++++++++++++++++++++++
 Total energy                               :      -582.97709631
 _______________________________________________________________
 Fermi energy                               :         0.16799523
 Kinetic energy                             :       583.99172194
 Coulomb energy                             :     -1127.18273789
 Exchange energy                            :       -37.63832030
 Correlation energy                         :        -2.14776005
 
 DOS at Fermi energy (states/Ha/cell)       :         0.00000000
 
 Electron charges :
     core                                   :        14.00000000
     core leakage                           :         0.00082656
     valence                                :        14.00000000
     interstitial                           :         3.22749738
     charge in muffin-tin spheres :
                  atom     1    Al          :        11.29238301
                  atom     2     P          :        13.48011961
     total charge in muffin-tins            :        24.77250262
     total charge                           :        28.00000000
 
 Estimated fundamental gap                  :         0.05335167
        valence-band maximum at    1      0.0000  0.0000  0.0000
     conduction-band minimum at  261      0.5000  0.0000  0.5000
 
 Wall time (seconds)                        :        26.37
 
 RMS change in effective potential (target) :  0.164707E-05  ( 0.100000E-05)
 Absolute change in total energy   (target) :  0.692525E-07  ( 0.100000E-05)
 Charge distance                   (target) :  0.561298E-07  ( 0.100000E-04)
 
++++++++++++++++++++++++++++++++++++++++++++++++++++++++++++++++++++++++++++++++
| SCF iteration number :   20                                                  +
++++++++++++++++++++++++++++++++++++++++++++++++++++++++++++++++++++++++++++++++
 Total energy                               :      -582.97709666
 _______________________________________________________________
 Fermi energy                               :         0.16799522
 Kinetic energy                             :       583.99172165
 Coulomb energy                             :     -1127.18273793
 Exchange energy                            :       -37.63832032
 Correlation energy                         :        -2.14776005
 
 DOS at Fermi energy (states/Ha/cell)       :         0.00000000
 
 Electron charges :
     core                                   :        14.00000000
     core leakage                           :         0.00082656
     valence                                :        14.00000000
     interstitial                           :         3.22749732
     charge in muffin-tin spheres :
                  atom     1    Al          :        11.29238306
                  atom     2     P          :        13.48011962
     total charge in muffin-tins            :        24.77250268
     total charge                           :        28.00000000
 
 Estimated fundamental gap                  :         0.05335167
        valence-band maximum at    1      0.0000  0.0000  0.0000
     conduction-band minimum at  261      0.5000  0.0000  0.5000
 
 Wall time (seconds)                        :        27.64
 
 RMS change in effective potential (target) :  0.141860E-05  ( 0.100000E-05)
 Absolute change in total energy   (target) :  0.346305E-06  ( 0.100000E-05)
 Charge distance                   (target) :  0.165146E-07  ( 0.100000E-04)
 
++++++++++++++++++++++++++++++++++++++++++++++++++++++++++++++++++++++++++++++++
| SCF iteration number :   21                                                  +
++++++++++++++++++++++++++++++++++++++++++++++++++++++++++++++++++++++++++++++++
 Total energy                               :      -582.97709639
 _______________________________________________________________
 Fermi energy                               :         0.16799521
 Kinetic energy                             :       583.99172183
 Coulomb energy                             :     -1127.18273785
 Exchange energy                            :       -37.63832032
 Correlation energy                         :        -2.14776005
 
 DOS at Fermi energy (states/Ha/cell)       :         0.00000000
 
 Electron charges :
     core                                   :        14.00000000
     core leakage                           :         0.00082656
     valence                                :        14.00000000
     interstitial                           :         3.22749727
     charge in muffin-tin spheres :
                  atom     1    Al          :        11.29238310
                  atom     2     P          :        13.48011962
     total charge in muffin-tins            :        24.77250273
     total charge                           :        28.00000000
 
 Estimated fundamental gap                  :         0.05335168
        valence-band maximum at    1      0.0000  0.0000  0.0000
     conduction-band minimum at  261      0.5000  0.0000  0.5000
 
 Wall time (seconds)                        :        28.93
 
 RMS change in effective potential (target) :  0.191747E-05  ( 0.100000E-05)
 Absolute change in total energy   (target) :  0.261214E-06  ( 0.100000E-05)
 Charge distance                   (target) :  0.291678E-07  ( 0.100000E-04)
 
++++++++++++++++++++++++++++++++++++++++++++++++++++++++++++++++++++++++++++++++
| SCF iteration number :   22                                                  +
++++++++++++++++++++++++++++++++++++++++++++++++++++++++++++++++++++++++++++++++
 Total energy                               :      -582.97709641
 _______________________________________________________________
 Fermi energy                               :         0.16799524
 Kinetic energy                             :       583.99172176
 Coulomb energy                             :     -1127.18273782
 Exchange energy                            :       -37.63832030
 Correlation energy                         :        -2.14776005
 
 DOS at Fermi energy (states/Ha/cell)       :         0.00000000
 
 Electron charges :
     core                                   :        14.00000000
     core leakage                           :         0.00082656
     valence                                :        14.00000000
     interstitial                           :         3.22749743
     charge in muffin-tin spheres :
                  atom     1    Al          :        11.29238296
                  atom     2     P          :        13.48011961
     total charge in muffin-tins            :        24.77250257
     total charge                           :        28.00000000
 
 Estimated fundamental gap                  :         0.05335166
        valence-band maximum at    1      0.0000  0.0000  0.0000
     conduction-band minimum at  261      0.5000  0.0000  0.5000
 
 Wall time (seconds)                        :        30.22
 
 RMS change in effective potential (target) :  0.205692E-05  ( 0.100000E-05)
 Absolute change in total energy   (target) :  0.125141E-07  ( 0.100000E-05)
 Charge distance                   (target) :  0.725045E-07  ( 0.100000E-04)
 
++++++++++++++++++++++++++++++++++++++++++++++++++++++++++++++++++++++++++++++++
| SCF iteration number :   23                                                  +
++++++++++++++++++++++++++++++++++++++++++++++++++++++++++++++++++++++++++++++++
 Total energy                               :      -582.97709627
 _______________________________________________________________
 Fermi energy                               :         0.16799522
 Kinetic energy                             :       583.99172191
 Coulomb energy                             :     -1127.18273781
 Exchange energy                            :       -37.63832031
 Correlation energy                         :        -2.14776005
 
 DOS at Fermi energy (states/Ha/cell)       :         0.00000000
 
 Electron charges :
     core                                   :        14.00000000
     core leakage                           :         0.00082656
     valence                                :        14.00000000
     interstitial                           :         3.22749732
     charge in muffin-tin spheres :
                  atom     1    Al          :        11.29238311
                  atom     2     P          :        13.48011957
     total charge in muffin-tins            :        24.77250268
     total charge                           :        28.00000000
 
 Estimated fundamental gap                  :         0.05335167
        valence-band maximum at    1      0.0000  0.0000  0.0000
     conduction-band minimum at  261      0.5000  0.0000  0.5000
 
 Wall time (seconds)                        :        31.52
 
 RMS change in effective potential (target) :  0.177652E-05  ( 0.100000E-05)
 Absolute change in total energy   (target) :  0.141783E-06  ( 0.100000E-05)
 Charge distance                   (target) :  0.632787E-07  ( 0.100000E-04)
 
++++++++++++++++++++++++++++++++++++++++++++++++++++++++++++++++++++++++++++++++
| SCF iteration number :   24                                                  +
++++++++++++++++++++++++++++++++++++++++++++++++++++++++++++++++++++++++++++++++
 Total energy                               :      -582.97709627
 _______________________________________________________________
 Fermi energy                               :         0.16799524
 Kinetic energy                             :       583.99172184
 Coulomb energy                             :     -1127.18273778
 Exchange energy                            :       -37.63832029
 Correlation energy                         :        -2.14776005
 
 DOS at Fermi energy (states/Ha/cell)       :         0.00000000
 
 Electron charges :
     core                                   :        14.00000000
     core leakage                           :         0.00082656
     valence                                :        14.00000000
     interstitial                           :         3.22749744
     charge in muffin-tin spheres :
                  atom     1    Al          :        11.29238298
                  atom     2     P          :        13.48011958
     total charge in muffin-tins            :        24.77250256
     total charge                           :        28.00000000
 
 Estimated fundamental gap                  :         0.05335166
        valence-band maximum at    1      0.0000  0.0000  0.0000
     conduction-band minimum at  261      0.5000  0.0000  0.5000
 
 Wall time (seconds)                        :        32.81
 
 RMS change in effective potential (target) :  0.202442E-05  ( 0.100000E-05)
 Absolute change in total energy   (target) :  0.849093E-08  ( 0.100000E-05)
 Charge distance                   (target) :  0.603891E-07  ( 0.100000E-04)
 
++++++++++++++++++++++++++++++++++++++++++++++++++++++++++++++++++++++++++++++++
| SCF iteration number :   25                                                  +
++++++++++++++++++++++++++++++++++++++++++++++++++++++++++++++++++++++++++++++++
 Total energy                               :      -582.97709663
 _______________________________________________________________
 Fermi energy                               :         0.16799521
 Kinetic energy                             :       583.99172170
 Coulomb energy                             :     -1127.18273796
 Exchange energy                            :       -37.63832032
 Correlation energy                         :        -2.14776005
 
 DOS at Fermi energy (states/Ha/cell)       :         0.00000000
 
 Electron charges :
     core                                   :        14.00000000
     core leakage                           :         0.00082656
     valence                                :        14.00000000
     interstitial                           :         3.22749727
     charge in muffin-tin spheres :
                  atom     1    Al          :        11.29238310
                  atom     2     P          :        13.48011962
     total charge in muffin-tins            :        24.77250273
     total charge                           :        28.00000000
 
 Estimated fundamental gap                  :         0.05335168
        valence-band maximum at    1      0.0000  0.0000  0.0000
     conduction-band minimum at  261      0.5000  0.0000  0.5000
 
 Wall time (seconds)                        :        34.11
 
 RMS change in effective potential (target) :  0.187728E-05  ( 0.100000E-05)
 Absolute change in total energy   (target) :  0.354880E-06  ( 0.100000E-05)
 Charge distance                   (target) :  0.674617E-07  ( 0.100000E-04)
 
++++++++++++++++++++++++++++++++++++++++++++++++++++++++++++++++++++++++++++++++
| SCF iteration number :   26                                                  +
++++++++++++++++++++++++++++++++++++++++++++++++++++++++++++++++++++++++++++++++
 Total energy                               :      -582.97709665
 _______________________________________________________________
 Fermi energy                               :         0.16799523
 Kinetic energy                             :       583.99172163
 Coulomb energy                             :     -1127.18273791
 Exchange energy                            :       -37.63832031
 Correlation energy                         :        -2.14776005
 
 DOS at Fermi energy (states/Ha/cell)       :         0.00000000
 
 Electron charges :
     core                                   :        14.00000000
     core leakage                           :         0.00082656
     valence                                :        14.00000000
     interstitial                           :         3.22749737
     charge in muffin-tin spheres :
                  atom     1    Al          :        11.29238301
                  atom     2     P          :        13.48011962
     total charge in muffin-tins            :        24.77250263
     total charge                           :        28.00000000
 
 Estimated fundamental gap                  :         0.05335167
        valence-band maximum at    1      0.0000  0.0000  0.0000
     conduction-band minimum at  261      0.5000  0.0000  0.5000
 
 Wall time (seconds)                        :        35.41
 
 RMS change in effective potential (target) :  0.118942E-05  ( 0.100000E-05)
 Absolute change in total energy   (target) :  0.192470E-07  ( 0.100000E-05)
 Charge distance                   (target) :  0.464765E-07  ( 0.100000E-04)
 
++++++++++++++++++++++++++++++++++++++++++++++++++++++++++++++++++++++++++++++++
| SCF iteration number :   27                                                  +
++++++++++++++++++++++++++++++++++++++++++++++++++++++++++++++++++++++++++++++++
 Total energy                               :      -582.97709633
 _______________________________________________________________
 Fermi energy                               :         0.16799524
 Kinetic energy                             :       583.99172182
 Coulomb energy                             :     -1127.18273780
 Exchange energy                            :       -37.63832029
 Correlation energy                         :        -2.14776005
 
 DOS at Fermi energy (states/Ha/cell)       :         0.00000000
 
 Electron charges :
     core                                   :        14.00000000
     core leakage                           :         0.00082656
     valence                                :        14.00000000
     interstitial                           :         3.22749745
     charge in muffin-tin spheres :
                  atom     1    Al          :        11.29238297
                  atom     2     P          :        13.48011958
     total charge in muffin-tins            :        24.77250255
     total charge                           :        28.00000000
 
 Estimated fundamental gap                  :         0.05335166
        valence-band maximum at    1      0.0000  0.0000  0.0000
     conduction-band minimum at  261      0.5000  0.0000  0.5000
 
 Wall time (seconds)                        :        36.72
 
 RMS change in effective potential (target) :  0.210782E-05  ( 0.100000E-05)
 Absolute change in total energy   (target) :  0.320639E-06  ( 0.100000E-05)
 Charge distance                   (target) :  0.268168E-07  ( 0.100000E-04)
 
++++++++++++++++++++++++++++++++++++++++++++++++++++++++++++++++++++++++++++++++
| SCF iteration number :   28                                                  +
++++++++++++++++++++++++++++++++++++++++++++++++++++++++++++++++++++++++++++++++
 Total energy                               :      -582.97709666
 _______________________________________________________________
 Fermi energy                               :         0.16799521
 Kinetic energy                             :       583.99172175
 Coulomb energy                             :     -1127.18273803
 Exchange energy                            :       -37.63832033
 Correlation energy                         :        -2.14776005
 
 DOS at Fermi energy (states/Ha/cell)       :         0.00000000
 
 Electron charges :
     core                                   :        14.00000000
     core leakage                           :         0.00082656
     valence                                :        14.00000000
     interstitial                           :         3.22749727
     charge in muffin-tin spheres :
                  atom     1    Al          :        11.29238311
                  atom     2     P          :        13.48011962
     total charge in muffin-tins            :        24.77250273
     total charge                           :        28.00000000
 
 Estimated fundamental gap                  :         0.05335168
        valence-band maximum at    1      0.0000  0.0000  0.0000
     conduction-band minimum at  261      0.5000  0.0000  0.5000
 
 Wall time (seconds)                        :        38.10
 
 RMS change in effective potential (target) :  0.102134E-05  ( 0.100000E-05)
 Absolute change in total energy   (target) :  0.330234E-06  ( 0.100000E-05)
 Charge distance                   (target) :  0.740866E-07  ( 0.100000E-04)
 
++++++++++++++++++++++++++++++++++++++++++++++++++++++++++++++++++++++++++++++++
| SCF iteration number :   29                                                  +
++++++++++++++++++++++++++++++++++++++++++++++++++++++++++++++++++++++++++++++++
 Total energy                               :      -582.97709646
 _______________________________________________________________
 Fermi energy                               :         0.16799521
 Kinetic energy                             :       583.99172179
 Coulomb energy                             :     -1127.18273788
 Exchange energy                            :       -37.63832032
 Correlation energy                         :        -2.14776005
 
 DOS at Fermi energy (states/Ha/cell)       :         0.00000000
 
 Electron charges :
     core                                   :        14.00000000
     core leakage                           :         0.00082656
     valence                                :        14.00000000
     interstitial                           :         3.22749726
     charge in muffin-tin spheres :
                  atom     1    Al          :        11.29238313
                  atom     2     P          :        13.48011961
     total charge in muffin-tins            :        24.77250274
     total charge                           :        28.00000000
 
 Estimated fundamental gap                  :         0.05335168
        valence-band maximum at    1      0.0000  0.0000  0.0000
     conduction-band minimum at  261      0.5000  0.0000  0.5000
 
 Wall time (seconds)                        :        39.41
 
 RMS change in effective potential (target) :  0.204153E-05  ( 0.100000E-05)
 Absolute change in total energy   (target) :  0.197208E-06  ( 0.100000E-05)
 Charge distance                   (target) :  0.109790E-07  ( 0.100000E-04)
 
++++++++++++++++++++++++++++++++++++++++++++++++++++++++++++++++++++++++++++++++
| SCF iteration number :   30                                                  +
++++++++++++++++++++++++++++++++++++++++++++++++++++++++++++++++++++++++++++++++
 Total energy                               :      -582.97709666
 _______________________________________________________________
 Fermi energy                               :         0.16799523
 Kinetic energy                             :       583.99172160
 Coulomb energy                             :     -1127.18273790
 Exchange energy                            :       -37.63832031
 Correlation energy                         :        -2.14776005
 
 DOS at Fermi energy (states/Ha/cell)       :         0.00000000
 
 Electron charges :
     core                                   :        14.00000000
     core leakage                           :         0.00082656
     valence                                :        14.00000000
     interstitial                           :         3.22749737
     charge in muffin-tin spheres :
                  atom     1    Al          :        11.29238300
                  atom     2     P          :        13.48011963
     total charge in muffin-tins            :        24.77250263
     total charge                           :        28.00000000
 
 Estimated fundamental gap                  :         0.05335167
        valence-band maximum at    1      0.0000  0.0000  0.0000
     conduction-band minimum at  261      0.5000  0.0000  0.5000
 
 Wall time (seconds)                        :        40.73
 
 RMS change in effective potential (target) :  0.116067E-05  ( 0.100000E-05)
 Absolute change in total energy   (target) :  0.199795E-06  ( 0.100000E-05)
 Charge distance                   (target) :  0.600588E-07  ( 0.100000E-04)
 
++++++++++++++++++++++++++++++++++++++++++++++++++++++++++++++++++++++++++++++++
| SCF iteration number :   31                                                  +
++++++++++++++++++++++++++++++++++++++++++++++++++++++++++++++++++++++++++++++++
 Total energy                               :      -582.97709636
 _______________________________________________________________
 Fermi energy                               :         0.16799524
 Kinetic energy                             :       583.99172174
 Coulomb energy                             :     -1127.18273775
 Exchange energy                            :       -37.63832029
 Correlation energy                         :        -2.14776005
 
 DOS at Fermi energy (states/Ha/cell)       :         0.00000000
 
 Electron charges :
     core                                   :        14.00000000
     core leakage                           :         0.00082656
     valence                                :        14.00000000
     interstitial                           :         3.22749745
     charge in muffin-tin spheres :
                  atom     1    Al          :        11.29238297
                  atom     2     P          :        13.48011958
     total charge in muffin-tins            :        24.77250255
     total charge                           :        28.00000000
 
 Estimated fundamental gap                  :         0.05335166
        valence-band maximum at    1      0.0000  0.0000  0.0000
     conduction-band minimum at  261      0.5000  0.0000  0.5000
 
 Wall time (seconds)                        :        42.04
 
 RMS change in effective potential (target) :  0.797831E-06  ( 0.100000E-05)
 Absolute change in total energy   (target) :  0.301046E-06  ( 0.100000E-05)
 Charge distance                   (target) :  0.256575E-07  ( 0.100000E-04)
 
++++++++++++++++++++++++++++++++++++++++++++++++++++++++++++++++++++++++++++++++
| SCF iteration number :   32                                                  +
++++++++++++++++++++++++++++++++++++++++++++++++++++++++++++++++++++++++++++++++
 Total energy                               :      -582.97709669
 _______________________________________________________________
 Fermi energy                               :         0.16799524
 Kinetic energy                             :       583.99172155
 Coulomb energy                             :     -1127.18273789
 Exchange energy                            :       -37.63832030
 Correlation energy                         :        -2.14776005
 
 DOS at Fermi energy (states/Ha/cell)       :         0.00000000
 
 Electron charges :
     core                                   :        14.00000000
     core leakage                           :         0.00082656
     valence                                :        14.00000000
     interstitial                           :         3.22749745
     charge in muffin-tin spheres :
                  atom     1    Al          :        11.29238293
                  atom     2     P          :        13.48011963
     total charge in muffin-tins            :        24.77250255
     total charge                           :        28.00000000
 
 Estimated fundamental gap                  :         0.05335166
        valence-band maximum at    1      0.0000  0.0000  0.0000
     conduction-band minimum at  261      0.5000  0.0000  0.5000
 
 Wall time (seconds)                        :        43.35
 
 RMS change in effective potential (target) :  0.665817E-06  ( 0.100000E-05)
 Absolute change in total energy   (target) :  0.333908E-06  ( 0.100000E-05)
 Charge distance                   (target) :  0.109089E-07  ( 0.100000E-04)
                                                                                
++++++++++++++++++++++++++++++++++++++++++++++++++++++++++++++++++++++++++++++++
| Convergency criteria checked for the last 2 iterations                       +
| Convergence targets achieved. Performing final SCF iteration                 +
++++++++++++++++++++++++++++++++++++++++++++++++++++++++++++++++++++++++++++++++
 Total energy                               :      -582.97709645
 _______________________________________________________________
 Fermi energy                               :         0.16799525
 Kinetic energy                             :       583.99172166
 Coulomb energy                             :     -1127.18273777
 Exchange energy                            :       -37.63832029
 Correlation energy                         :        -2.14776005
 
 DOS at Fermi energy (states/Ha/cell)       :         0.00000000
 
 Electron charges :
     core                                   :        14.00000000
     core leakage                           :         0.00082656
     valence                                :        14.00000000
     interstitial                           :         3.22749750
     charge in muffin-tin spheres :
                  atom     1    Al          :        11.29238292
                  atom     2     P          :        13.48011958
     total charge in muffin-tins            :        24.77250250
     total charge                           :        28.00000000
 
 Estimated fundamental gap                  :         0.05335165
        valence-band maximum at    1      0.0000  0.0000  0.0000
     conduction-band minimum at  261      0.5000  0.0000  0.5000
 
++++++++++++++++++++++++++++++++++++++++++++++++++++++++++++++++++++++++++++++++
| Self-consistent loop stopped                                                 +
++++++++++++++++++++++++++++++++++++++++++++++++++++++++++++++++++++++++++++++++
 STATE.OUT is written
 
********************************************************************************
| Groundstate module stopped                                                   *
********************************************************************************
 
 Total time spent (seconds)                 :        49.62
 
================================================================================
| EXCITING CARBON stopped                                                      =
================================================================================
